HEADER
"PSFversion" "1.00"
"design" "(\"multiplier\" \"4X4_multiplier\" \"extracted\" \"\")"
"simulator" "spectre"
"temperature" "27"
"host" ""
"date" "May 23 20:22:30 2021"
"title" ""
"analysisList" "()"
END
