HEADER
"PSFversion" "1.00"
"design" "(\"multiplier\" \"4X4_multiplier\" \"schematic\" \"\")"
"simulator" "spectre"
"temperature" "27"
"host" ""
"date" "May 23 19:42:27 2021"
"title" ""
"analysisList" "()"
END
