HEADER
"PSFversion" "1.00"
"Time Stamp" "May 23 19:42:27 2021"
TYPE
"variable" STRUCT(
"value" FLOAT DOUBLE
) PROP( "key" "element" )
VALUE
"temp" "variable" ( 27 ) PROP( )
END
