HEADER
"PSFversion" "1.00"
"__NEXT_FILE__" "multiplier_4X4_multiplier_extracted"
