HEADER
"PSFversion" "1.00"
"+4n +3n +2n +1n +0n" "gpdk_pcapacitor_spectre"
"+6n" "gpdk_pmos_spectre"
"+5n" "gpdk_nmos_spectre"
