HEADER
"PSFversion" "1.00"
"+35n +34n +33n +32n +31n +30n +29n +28n +27n +26n +25n +24n +23n +22n +21n +20n +19n +18n +17n +16n +15n +14n +13n +12n +11n +10n +9n +8n +7n +6n +5n +4n +3n +2n +1n +0n" "gpdk_pcapacitor_spectre"
"+47n +46n +45n +44n +43n +42n" "gpdk_pmos_spectre"
"+41n +40n +39n +38n +37n +36n" "gpdk_nmos_spectre"
