HEADER
"PSFversion" "1.00"
"simulator" "spectre"
"version" "13.1.1.205.isr10"
"date" "7:31:50 PM, Fri May 21, 2021"
"design" "// Generated for: spectre"
"analysis type" "info"
"analysis name" "designParamVals"
"analysis description" "Circuit Information"
"xVecSorted" "unknown"
"tolerance.relative" 0.00100000
TYPE
"top-level" STRUCT(
"temp" FLOAT DOUBLE
"tnom" FLOAT DOUBLE
"time" FLOAT DOUBLE
"toxn" FLOAT DOUBLE
"dvthn" FLOAT DOUBLE
"dlxn" FLOAT DOUBLE
"dxwn" FLOAT DOUBLE
"cjn" FLOAT DOUBLE
"cjswn" FLOAT DOUBLE
"cjswgn" FLOAT DOUBLE
"cgon" FLOAT DOUBLE
"hdifn" FLOAT DOUBLE
"toxp" FLOAT DOUBLE
"dvthp" FLOAT DOUBLE
"dxlp" FLOAT DOUBLE
"dxwp" FLOAT DOUBLE
"cjp" FLOAT DOUBLE
"cjswp" FLOAT DOUBLE
"cjswgp" FLOAT DOUBLE
"cgop" FLOAT DOUBLE
"hdifp" FLOAT DOUBLE
) PROP(
"key" "parameters"
)
VALUE
"top-level" "top-level" (
2.700000000000000e+01
2.700000000000000e+01
0.000000000000000e+00
4.000000000000000e-09
0.000000000000000e+00
0.000000000000000e+00
0.000000000000000e+00
1.000000000000000e-03
2.000000000000000e-10
3.300000000000000e-10
3.700000000000000e-10
2.000000000000000e-07
4.000000000000000e-09
0.000000000000000e+00
0.000000000000000e+00
0.000000000000000e+00
1.100000000000000e-03
2.500000000000000e-10
4.200000000000000e-10
3.300000000000000e-10
2.000000000000000e-07
)
END
