HEADER
"PSFversion" "1.00"
"design" "(\"multiplier\" \"xor2\" \"extracted\" \"\")"
"simulator" "spectre"
"temperature" "27"
"host" ""
"date" "May 21 19:43:28 2021"
"title" ""
"analysisList" "()"
END
