HEADER
"PSFversion" "1.00"
"design" "(\"multiplier_low\" \"inv\" \"av_extracted\" \"\")"
"simulator" "spectre"
"temperature" "27"
"host" ""
"date" "May 27 02:41:25 2021"
"title" ""
"analysisList" "()"
END
