HEADER
"PSFversion" "1.00"
"I1n" "xor2"
"I3n" "and2"
"Av" ":1v"
"Bv" ":2v"
"Cv" ":3v"
"Sv" ":4v"
