HEADER
"PSFversion" "1.00"
"I11n I10n I9n I4n I3n I2n I1n I0n" "full_adder_2"
"I8n I7n I6n I5n" "half_adder_2"
"I27n I26n I25n I24n I23n I22n I21n I20n I19n I18n I17n I16n I15n I14n I13n I12n" "and2"
