HEADER
"PSFversion" "1.00"
"MN1n MN0n" "gpdk_nmos_spectre"
"MP1n MP0n" "gpdk_pmos_spectre"
"Av" ":1v"
"Bv" ":2v"
"Outv" ":3v"
