HEADER
"PSFversion" "1.00"
"design" "(\"multiplier_low\" \"4X4_multiplier\" \"av_extracted\" \"\")"
"simulator" "spectre"
"temperature" "27"
"host" ""
"date" "May 27 02:13:04 2021"
"title" ""
"analysisList" "()"
END
