HEADER
"PSFversion" "1.00"
"+8n +7n +6n +5n +4n +3n +2n +1n +0n" "gpdk_pcapacitor_spectre"
"+12n +11n" "gpdk_pmos_spectre"
"+10n +9n" "gpdk_nmos_spectre"
