HEADER
"PSFversion" "1.00"
"design" "(\"multiplier\" \"inv\" \"extracted\" \"\")"
"simulator" "spectre"
"temperature" "27"
"host" ""
"date" "May 21 15:21:14 2021"
"title" ""
"analysisList" "()"
END
