HEADER
"PSFversion" "1.00"
"re2n re3n rf1n rf2n rf3n rf4n rf5n rf6n rf7n rg1n rg2n rg3n" "analogLib_presistor_spectre"
"MP0n" "gpdk_pmos_spectre"
"MN0n" "gpdk_nmos_spectre"
