HEADER
"PSFversion" "1.00"
"design" "(\"multiplier\" \"nand2\" \"extracted\" \"\")"
"simulator" "spectre"
"temperature" "27"
"host" ""
"date" "May 21 20:03:32 2021"
"title" ""
"analysisList" "()"
END
