HEADER
"PSFversion" "1.00"
"+13n +12n +11n +10n +9n +8n +7n +6n +5n +4n +3n +2n +1n +0n" "gpdk_pcapacitor_spectre"
"+19n +18n +17n" "gpdk_pmos_spectre"
"+16n +15n +14n" "gpdk_nmos_spectre"
