HEADER
"PSFversion" "1.00"
"design" "(\"multiplier_low\" \"nand2\" \"av_extracted\" \"\")"
"simulator" "spectre"
"temperature" "27"
"host" ""
"date" "May 27 03:18:50 2021"
"title" ""
"analysisList" "()"
END
