HEADER
"PSFversion" "1.00"
"rd1n rd2n rd3n rd4n rd5n rd6n rd7n rd8n rd9n rd10n rd11n rd12n rd13n rd14n rd15n rd16n rd17n rd18n rd19n rd20n rd21n rd22n rd23n rd24n rd25n rd26n rd27n rd28n rd29n rd30n rd31n rd32n rd33n rd34n rd35n re1n re2n re3n re4n re5n re6n re7n re8n re9n re10n re11n re12n re13n re14n re15n re16n re17n re18n re19n re20n re21n re22n re23n re24n re25n re26n re27n re28n re29n re30n re31n re32n re33n re34n re35n re36n re37n re38n re39n re40n re41n re42n re43n re44n re45n re46n re47n re48n re49n re50n re51n re52n re53n re54n re55n re56n re57n re58n re59n re60n re61n re62n re63n re64n re65n re66n re67n re68n re69n re70n re71n re72n re73n re74n re75n re76n re77n re78n re79n re80n re81n re82n re83n re84n re85n re86n re87n re88n re89n re90n re91n re92n re93n re94n re95n re96n re97n re98n re99n re100n re101n re102n re103n re104n re105n re106n re107n re108n re109n re110n re111n re112n re113n re114n re115n re116n re117n re118n re119n re120n re121n re122n re123n re124n rf1n rf2n rf4n rf5n rf6n rf7n rf9n rf10n rf11n rf12n rf13n rf14n rf15n rf16n rf17n rf18n rf19n rf20n rf21n rf22n rf23n rf24n rf25n rf26n rf27n rf28n rf29n rf30n rf31n rf32n rf33n rf34n rf35n rf36n rf37n rf38n rf39n rf40n rf41n rf42n rf43n rf44n rf45n rf46n rf47n rf48n rf49n rf50n rf51n rf52n rf53n rf54n rf55n rf56n rf57n rf58n rf59n rf60n rf61n rf62n rf63n rf64n rf65n rf66n rf67n rf68n rf69n rf70n rf71n rf72n rf73n rf74n rf75n rf76n rf77n rf78n rf79n rf80n rf81n rf82n rf83n rf84n rf85n rf86n rf87n rf88n rf89n rf90n rf91n rf92n rf93n rf94n rf95n rf96n rf97n rf98n rf99n rf100n rf102n rf103n rf104n rf105n rf106n rf107n rf108n rf109n rf110n rf111n rf112n rf113n rf114n rf115n rf116n rf117n rf118n rf119n rf120n rf121n rf122n rf123n rf124n rf125n rf126n rf127n rf128n rf129n rf131n rf132n rf133n rf134n rf135n rf136n rf137n rf138n rf139n rf140n rf141n rf142n rf143n rf144n rf145n rf146n rf147n rf148n rf149n rf150n rf151n rf152n rf153n rf154n rf155n rf156n rf157n rf158n rf159n rf160n rf161n rf162n rf163n rf164n rf165n rf166n rf167n rf168n rf169n rf170n rf171n rf172n rf173n rf174n rf175n rf176n rf177n rf178n rf179n rf180n rf181n rf182n rf183n rf184n rf185n rf186n rf187n rf188n rf189n rf190n rf191n rf192n rf193n rf194n rf195n rf196n rf197n rf198n rf199n rf200n rf201n rf202n rf203n rf204n rf205n rf206n rf207n rf208n rf209n rf210n rf211n rf212n rf213n rf214n rf215n rf216n rf217n rf218n rf219n rf220n rf221n rf222n rf223n rf224n rf225n rf226n rf227n rf228n rf229n rf230n rf231n rf232n rf233n rf234n rf235n rf236n rf237n rf238n rf239n rf240n rf241n rf242n rf243n rf244n rf245n rf246n rf247n rf248n rf249n rf250n rf251n rf252n rf253n rf254n rf255n rf256n rf257n rf258n rf259n rf260n rf261n rf262n rf263n rf264n rf265n rf266n rf267n rf268n rf269n rf270n rf271n rf272n rf273n rf274n rf275n rf276n rf277n rf278n rf279n rf280n rf281n rf282n rf283n rf284n rf285n rf286n rf287n rf288n rf289n rf290n rf291n rf292n rf293n rf294n rf295n rf296n rf297n rf298n rf299n rf300n rf301n rf302n rf303n rf304n rf305n rf306n rf307n rf308n rf309n rf310n rf311n rf312n rf313n rf314n rf315n rf316n rf317n rf318n rf319n rf320n rf321n rf322n rf323n rf324n rf325n rf326n rf327n rf328n rf329n rf330n rf331n rf332n rf333n rf334n rf335n rf336n rf337n rf338n rf339n rf340n rf341n rf342n rf343n rf344n rf345n rf346n rf347n rf348n rf349n rf350n rf351n rf352n rf353n rf354n rf355n rf356n rf357n rf358n rf359n rf360n rf361n rf362n rf363n rf364n rf365n rf366n rf367n rf368n rf369n rf370n rf371n rf373n rf374n rf375n rf376n rf377n rf378n rf379n rf380n rf381n rf382n rf383n rf384n rf385n rf386n rf387n rf388n rf389n rf390n rf391n rf392n rf393n rf394n rf395n rf396n rf397n rf398n rf399n rf400n rf401n rf402n rf404n rf405n rf406n rf407n rf408n rf409n rf410n rf411n rf412n rf413n rf414n rf415n rf416n rf417n rf418n rf419n rf420n rf421n rf422n rf423n rf424n rf425n rf426n rf427n rf428n rf429n rf430n rf431n rf432n rf433n rf434n rf435n rf436n rf437n rf438n rf439n rf440n rf441n rf442n rf443n rf444n rf445n rf446n rf447n rf448n rf449n rf450n rf451n rf452n rf453n rf454n rf455n rf456n rf457n rf458n rf459n rf460n rf461n rf462n rf463n rf464n rf466n rf467n rf468n rf469n rf470n rf471n rf472n rf473n rf474n rf475n rf476n rf477n rf478n rf479n rf481n rf482n rf483n rf484n rf485n rf486n rf487n rf488n rf489n rf490n rf491n rf492n rf493n rf494n rf495n rf496n rf497n rf498n rf499n rf500n rf501n rf502n rf503n rf504n rf505n rf506n rf507n rf508n rf509n rf510n rf511n rf512n rf513n rf514n rf515n rf516n rf517n rf518n rf519n rf520n rf521n rf522n rf523n rf524n rf525n rf526n rf527n rf528n rf529n rf530n rf531n rf532n rf533n rf534n rf535n rf536n rf537n rf538n rf539n rf540n rf541n rf542n rf543n rf544n rf545n rf546n rf547n rf548n rf549n rf550n rf551n rf552n rf553n rf554n rf555n rf556n rf557n rf558n rf559n rf560n rf561n rf562n rf563n rf564n rf565n rf566n rf567n rf568n rf569n rf570n rf571n rf572n rf573n rf574n rf575n rf576n rf577n rf578n rf579n rf580n rf581n rf582n rf583n rf584n rf585n rf586n rf587n rf588n rf589n rf590n rf591n rf592n rf593n rf594n rf595n rf596n rf597n rf598n rf599n rf600n rf601n rf602n rf603n rf604n rf605n rf606n rf607n rf608n rf609n rf610n rf611n rf612n rf613n rf614n rf615n rf616n rf617n rf618n rf619n rf620n rf621n rf622n rf623n rf624n rf625n rf626n rf627n rf628n rf629n rf630n rf631n rf632n rf633n rf634n rf635n rf636n rf637n rf638n rf639n rf640n rf641n rf642n rf643n rf644n rf645n rf646n rf647n rf648n rf649n rf650n rf651n rf652n rf653n rf654n rf655n rf656n rf657n rf658n rf659n rf660n rf661n rf662n rf663n rf664n rf665n rf666n rf667n rf668n rf669n rf670n rf671n rf672n rf673n rf674n rf675n rf676n rf677n rf678n rf679n rf680n rf681n rf682n rf683n rf684n rf685n rf686n rf687n rf688n rf689n rf690n rf691n rf692n rf693n rf694n rf695n rf696n rf697n rf698n rf699n rf700n rf701n rf702n rf703n rf704n rf705n rf706n rf707n rf708n rf709n rf710n rf711n rf712n rf713n rf714n rf715n rf716n rf717n rf718n rf719n rf720n rf721n rf722n rf723n rf724n rf725n rf726n rf727n rf728n rf729n rf730n rf731n rf732n rf733n rf734n rf735n rf736n rf737n rf738n rf739n rf740n rf741n rf742n rf743n rf744n rf745n rf746n rf747n rf748n rf749n rf750n rf751n rf752n rf753n rf754n rf755n rf756n rf757n rf758n rf759n rf760n rf761n rf762n rf763n rf764n rf765n rf766n rf767n rf768n rf769n rf770n rf771n rf772n rf773n rf774n rf775n rf776n rf777n rf778n rf779n rf780n rf781n rf782n rf783n rf784n rf785n rf786n rf787n rf788n rf789n rf790n rf791n rf792n rf793n rf794n rf795n rf796n rf797n rf798n rf799n rf800n rf801n rf802n rf803n rf804n rf805n rf806n rf807n rf808n rf809n rf810n rf811n rf812n rf813n rf814n rf815n rf816n rf817n rf818n rf819n rf820n rf821n rf822n rf823n rf824n rf825n rf826n rf827n rf828n rf829n rf830n rf831n rf832n rf833n rf834n rf835n rf836n rf837n rf838n rf839n rf840n rf841n rf842n rf843n rf844n rf845n rf846n rf847n rf848n rf849n rf850n rf851n rf852n rf853n rf854n rf855n rf856n rf857n rf858n rf859n rf860n rf861n rf862n rf863n rf864n rf865n rf866n rf867n rf868n rf869n rf870n rf871n rf872n rf873n rf874n rf875n rf876n rf877n rf878n rf879n rf880n rf881n rf882n rf883n rf884n rf885n rf886n rf887n rf888n rf889n rf890n rf891n rf892n rf893n rf894n rf895n rf896n rf897n rf898n rf899n rf900n rf901n rf902n rf903n rf904n rf905n rf906n rf907n rf908n rf909n rf910n rf911n rf912n rf913n rf914n rf915n rf916n rf917n rf918n rf919n rf920n rf921n rf922n rf923n rf924n rf925n rf926n rf927n rf928n rf929n rf930n rf931n rf932n rf933n rf934n rf935n rf936n rf937n rf938n rf939n rf940n rf941n rf942n rf943n rf944n rf945n rf946n rf947n rf948n rf949n rf950n rf951n rf952n rf953n rf954n rf955n rf956n rf957n rf958n rf959n rf960n rf961n rf962n rf963n rf964n rf965n rf966n rf967n rf968n rf969n rf970n rf971n rf972n rf973n rf974n rf975n rf976n rf977n rf978n rf979n rf980n rf981n rf982n rf983n rf984n rf985n rf986n rf987n rf988n rf989n rf990n rf991n rf992n rf993n rf994n rf995n rf996n rf997n rf998n rf999n rf1000n rf1001n rf1002n rf1003n rf1004n rf1005n rf1006n rf1007n rf1008n rf1009n rf1010n rf1011n rf1012n rf1013n rf1014n rf1015n rf1016n rf1017n rf1018n rf1019n rf1020n rf1021n rf1022n rf1023n rf1024n rf1025n rf1026n rf1027n rf1028n rf1029n rf1030n rf1031n rf1032n rf1033n rf1034n rf1035n rf1036n rf1037n rf1038n rf1039n rf1040n rf1041n rf1042n rf1043n rf1044n rf1045n rf1046n rf1047n rf1048n rf1049n rf1050n rf1051n rf1052n rf1053n rf1054n rf1055n rf1056n rf1057n rf1058n rf1059n rf1060n rf1061n rf1062n rf1063n rf1064n rf1065n rf1066n rf1067n rf1068n rf1069n rf1070n rf1071n rf1072n rf1073n rf1074n rf1075n rf1076n rf1077n rf1078n rf1079n rf1080n rf1081n rf1082n rf1083n rf1084n rf1085n rf1086n rf1087n rf1088n rf1089n rf1090n rf1091n rf1092n rf1093n rf1094n rf1095n rf1096n rf1097n rf1098n rf1099n rf1100n rf1101n rf1102n rf1103n rf1104n rf1105n rf1106n rf1107n rf1108n rf1109n rf1110n rf1111n rf1112n rf1113n rf1114n rf1115n rf1116n rf1117n rf1118n rf1119n rf1120n rf1121n rf1122n rf1123n rf1124n rf1125n rf1126n rf1127n rf1128n rf1129n rf1130n rf1131n rf1132n rf1133n rf1134n rf1135n rf1136n rf1137n rf1138n rf1139n rf1140n rf1141n rf1142n rf1143n rf1144n rf1145n rf1146n rf1147n rf1148n rf1149n rf1150n rf1151n rf1152n rf1153n rf1154n rf1155n rf1156n rf1157n rf1158n rf1159n rf1160n rf1161n rf1162n rf1163n rf1164n rf1165n rf1166n rf1167n rf1168n rf1169n rf1170n rf1171n rf1172n rf1173n rf1174n rf1175n rf1176n rf1177n rf1178n rf1179n rf1180n rf1181n rf1182n rf1183n rf1184n rf1185n rf1186n rf1187n rf1188n rf1189n rf1190n rf1191n rf1192n rf1193n rf1194n rf1195n rf1196n rf1197n rf1198n rf1199n rf1200n rf1201n rg1n rg2n rg3n rg4n rg5n rg6n rg7n rg8n rg9n rg10n rg11n rg12n rg13n rg14n rg15n rg16n rg17n rg18n rg20n rg21n rg22n rg23n rg24n rg25n rg26n rg27n rg28n rg29n rg30n rg31n rg32n rg33n rg34n rg35n rg36n rg37n rg38n rg39n rg40n rg41n rg42n rg43n rg44n rg45n rg46n rg47n rg48n rg49n rg50n rg51n rg52n rg53n rg54n rg55n rg56n rg57n rg58n rg59n rg60n rg61n rg62n rg63n rg64n rg65n rg66n rg67n rg68n rg69n rg70n rg71n rg72n rg73n rg74n rg75n rg76n rg77n rg78n rg79n rg80n rg81n rg82n rg83n rg84n rg85n rg86n rg87n rg88n rg89n rg90n rg91n rg92n rg93n rg94n rg95n rg96n rg97n rg98n rg99n rg100n rg101n rg102n rg103n rg104n rg105n rg106n rg107n rg108n rg109n rg110n rg111n rg112n rg113n rg114n rg115n rg116n rg117n rg118n rg119n rg120n rg121n rg122n rg123n rg124n rg125n rg126n rg127n rg128n rg129n rg130n rg131n rg132n rg133n rg134n rg135n rg136n rg137n rg138n rg139n rg140n rg141n rg142n rg143n rg144n rg145n rg146n rg147n rg148n rg149n rg150n rg151n rg152n rg153n rg154n rg155n rg156n rg157n rg158n rg159n rg160n rg161n rg162n rg163n rg165n rg166n rg167n rg168n rg169n rg170n rg171n rg172n rg173n rg174n rg175n rg176n rg177n rg178n rg179n rg180n rg181n rg182n rg183n rg184n rg185n rg186n rg187n rg188n rg189n rg190n rg191n rg192n rg193n rg194n rg195n rg196n rg197n rg198n rg199n rg200n rg201n rg202n rg203n rg204n rg205n rg206n rg207n rg208n rg209n rg210n rg211n rg212n rg213n rg214n rg215n rg216n rg217n rg218n rg219n rg220n rg221n rg222n rg223n rg224n rg225n rg226n rg227n rg228n rg229n rg230n rg231n rg232n rg233n rg234n rg235n rg236n rg237n rg238n rg239n rg240n rg241n rg242n rg243n rg244n rg245n rg246n rg247n rg248n rg249n rg250n rg251n rg252n rg253n rg254n rg255n rg256n rg257n rg258n rg259n rg260n rg261n rg262n rg263n rg264n rg265n rg266n rg267n rg268n rg269n rg270n rg271n rg272n rg273n rg274n rg275n rg276n rg277n rg278n rg279n rg280n rg281n rg282n rg283n rg284n rg285n rg286n rg287n rg288n rg289n rg290n rg291n rg292n rg293n rg294n rg295n rg296n rg297n rg298n rg299n rg300n rg301n rg302n rg303n rg304n rg305n rg306n rg307n rg308n rg309n rg310n rg311n rg312n rg313n rg314n rg315n rg316n rg317n rg318n rg319n rg320n rg321n rg322n rg323n rg324n rg325n rg326n rg327n rg328n rg329n rg330n rg331n rg332n rg333n rg334n rg335n rg336n rg337n rg338n rg339n rg340n rg341n rg342n rg343n rg344n rg345n rg346n rg347n rg348n rg349n rg350n rg351n rg352n rg353n rg354n rg355n rg356n rg357n rg358n rg359n rg360n rg361n rg362n rg363n rg364n rg365n rg366n rg367n rg368n rg369n rg370n rg371n rg372n rg373n rg374n rg375n rg376n rg377n rg378n rg379n rg380n rg381n rg382n rg383n rg384n rg385n rg386n rg387n rg388n rg389n rg390n rg391n rg392n rg393n rg394n rg395n rg396n rg397n rg398n rg399n rg400n rg401n rg402n rg403n rg404n rg405n rg406n rg407n rg408n rg409n rg410n rg411n rg412n rg413n rg414n rg415n rg416n rg417n rg418n rg419n rg420n rg421n rg422n rg423n rg424n rg425n rg426n rg427n rg428n rg429n rg430n rg431n rg432n rg433n rg434n rg435n rg436n rg437n rg438n rg439n rg440n rg441n rg442n rg443n rg444n rg445n rg446n rg447n rg448n rg449n rg450n rg451n rg452n rg453n rg454n rg455n rg456n rg457n rg458n rg459n rg460n rg461n rg462n rg463n rg464n rg465n rg466n rg467n rg468n rg469n rg470n rg471n rg472n rg473n rg474n rg475n rg476n rg477n rg478n rg479n rg480n rg481n rg482n rg483n rg484n rg485n rg486n rg487n rg488n rg489n rg490n rg491n rg492n rg493n rg494n rg495n rg496n rg497n rg498n rg499n rg500n rg501n rg502n rg503n rg504n rg505n rg506n rg507n rg508n rg509n rg510n rg511n rg512n rg514n rg515n rg516n rg517n rg518n rg519n rg520n rg521n rg522n rg523n rg524n rg525n rg526n rg527n rg528n rg529n rg530n rg531n rg532n rg533n rg534n rg535n rg536n rg537n rg538n rg539n rg540n rg541n rg542n rg543n rg544n rg545n rg546n rg547n rg548n rg549n rg550n rg551n rg552n rg553n rg554n rg555n rg556n rg557n rg558n rg559n rg560n rg561n rg562n rg563n rg564n rg565n rg566n rg567n rg568n rg569n rg570n rg571n rg572n rg573n rg574n rg575n rg576n rg577n rg578n rg579n rg580n rg581n rg582n rg583n rg584n rg585n rg586n rg587n rg588n rg589n rg590n rg591n rg592n rg593n rg594n rg595n rg596n rg597n rg598n rg599n rg600n rg601n rg602n rg603n rg604n rg605n rg606n rg607n rg608n rg609n rg610n rg611n rg612n rg613n rg614n rg615n rg616n rg617n rg618n rg619n rg620n rg621n rg622n rg623n rg624n rg625n rg626n rg627n rg628n rg629n rg630n rg631n rg632n rg633n rg634n rg635n rg636n rg637n rg638n rg640n rg641n rg642n rg643n rg644n rg645n rg647n rg648n rg649n rg650n rg651n rg652n rg653n rg654n rg655n rg656n" "analogLib_presistor_spectre"
"I25|MP0n I22|MP0n I14|MP2n I17|MP2n I25|MP1n I22|MP1n I8|I1|MP4n I7|I1|MP4n I14|MP1n I17|MP0n I25|MP2n I22|MP2n I8|I1|MP1n I7|I1|MP1n I14|MP0n I17|MP1n I8|I1|MP0n I7|I1|MP0n I8|I3|MP1n I8|I1|MP2n I7|I3|MP1n I7|I1|MP2n I6|I3|MP2n I6|I1|MP5n I8|I3|MP0n I8|I1|MP3n I7|I3|MP0n I7|I1|MP3n I6|I3|MP1n I6|I1|MP2n I24|MP0n I6|I1|MP0n I23|MP0n I6|I1|MP1n I16|MP2n I6|I3|MP0n I6|I1|MP3n I8|I1|MP5n I8|I3|MP2n I7|I1|MP5n I7|I3|MP2n I6|I1|MP4n I16|MP1n I2|I4|MP0n I24|MP1n I16|MP0n I23|MP1n I13|MP2n I11|I4|MP1n I24|MP2n I23|MP2n I2|I4|MP1n I11|I4|MP0n I1|I0|MP0n I1|I4|MP4n I1|I0|MP1n I1|I4|MP0n I1|I4|MP5n I1|I4|MP1n I13|MP1n I13|MP0n I1|I4|MP3n I1|I4|MP2n I2|I1|MP1n I2|I1|MP0n I2|I0|MP1n I2|I0|MP0n I2|I4|MP4n I1|I3|MP5n I1|I3|MP2n I1|I3|MP3n I1|I2|MP0n I1|I2|MP1n I1|I3|MP1n I1|I3|MP0n I1|I1|MP1n I1|I1|MP0n I1|I3|MP4n I3|I3|MP5n I2|I3|MP5n I2|I2|MP0n I2|I2|MP1n I3|I3|MP2n I2|I3|MP2n I2|I3|MP3n I2|I3|MP1n I2|I3|MP0n I2|I3|MP4n I2|I4|MP5n I2|I4|MP2n I2|I4|MP3n I11|I3|MP0n I11|I1|MP1n I11|I1|MP0n I11|I3|MP4n I11|I0|MP1n I11|I4|MP5n I11|I0|MP0n I11|I4|MP2n I11|I4|MP4n I11|I4|MP3n I10|I3|MP2n I10|I3|MP5n I11|I3|MP5n I11|I3|MP2n I11|I3|MP3n I11|I2|MP0n I11|I2|MP1n I11|I3|MP1n I0|I3|MP4n I0|I1|MP1n I0|I1|MP0n I0|I3|MP0n I0|I3|MP1n I0|I2|MP1n I0|I2|MP0n I0|I3|MP3n I0|I3|MP2n I0|I3|MP5n I3|I0|MP0n I3|I0|MP1n I3|I1|MP1n I3|I1|MP0n I3|I2|MP1n I3|I2|MP0n I0|I4|MP3n I21|MP2n I0|I4|MP4n I0|I4|MP2n I0|I0|MP0n I3|I4|MP4n I0|I4|MP5n I0|I0|MP1n I18|MP1n I0|I4|MP0n I21|MP0n I0|I4|MP1n I21|MP1n I18|MP2n I10|I3|MP0n I3|I3|MP0n I10|I3|MP1n I10|I2|MP1n I3|I3|MP1n I10|I2|MP0n I10|I3|MP3n I3|I3|MP3n I10|I4|MP5n I3|I4|MP5n I10|I0|MP1n I10|I3|MP4n I3|I3|MP4n I10|I1|MP1n I10|I1|MP0n I10|I4|MP3n I3|I4|MP3n I10|I4|MP4n I10|I4|MP2n I3|I4|MP2n I10|I0|MP0n I26|MP0n I26|MP1n I10|I4|MP0n I3|I4|MP0n I10|I4|MP1n I3|I4|MP1n I26|MP2n I4|I2|MP1n I4|I2|MP0n I5|I1|MP4n I12|MP2n I4|I3|MP5n I18|MP0n I5|I3|MP0n I5|I1|MP3n I4|I1|MP1n I5|I1|MP1n I4|I1|MP0n I12|MP1n I5|I1|MP0n I12|MP0n I4|I4|MP4n I5|I1|MP5n I5|I3|MP2n I4|I0|MP0n I5|I3|MP1n I5|I1|MP2n I4|I0|MP1n I20|MP1n I15|MP0n I19|MP1n I20|MP0n I15|MP1n I19|MP0n I20|MP2n I15|MP2n I19|MP2n I4|I3|MP4n I4|I3|MP0n I4|I3|MP1n I4|I3|MP3n I4|I3|MP2n I9|I0|MP1n I9|I3|MP4n I9|I1|MP1n I9|I1|MP0n I9|I3|MP0n I9|I3|MP1n I9|I2|MP1n I9|I2|MP0n I9|I3|MP3n I9|I3|MP2n I9|I3|MP5n I4|I4|MP3n I9|I4|MP3n I9|I4|MP4n I4|I4|MP2n I9|I4|MP2n I9|I0|MP0n I4|I4|MP5n I9|I4|MP5n I27|MP1n I27|MP0n I4|I4|MP0n I9|I4|MP0n I4|I4|MP1n I9|I4|MP1n I27|MP2n" "gpdk_pmos_spectre"
"I25|MN0n I22|MN0n I14|MN2n I17|MN2n I25|MN1n I22|MN1n I8|I1|MN4n I7|I1|MN4n I14|MN1n I17|MN0n I25|MN2n I22|MN2n I8|I1|MN2n I7|I1|MN2n I14|MN0n I17|MN1n I8|I1|MN3n I7|I1|MN3n I8|I3|MN1n I8|I1|MN1n I7|I3|MN1n I7|I1|MN1n I6|I3|MN2n I6|I1|MN5n I8|I3|MN0n I8|I1|MN0n I7|I3|MN0n I7|I1|MN0n I6|I3|MN1n I6|I1|MN1n I24|MN0n I6|I1|MN3n I23|MN0n I6|I1|MN2n I16|MN2n I6|I3|MN0n I6|I1|MN0n I8|I1|MN5n I8|I3|MN2n I7|I1|MN5n I7|I3|MN2n I6|I1|MN4n I16|MN1n I2|I4|MN3n I24|MN1n I16|MN0n I23|MN1n I13|MN2n I11|I4|MN2n I24|MN2n I23|MN2n I2|I4|MN2n I11|I4|MN3n I1|I4|MN1n I2|I0|MN1n I2|I0|MN0n I13|MN1n I13|MN0n I1|I4|MN3n I2|I4|MN4n I1|I4|MN2n I11|I4|MN5n I11|I0|MN0n I2|I4|MN5n I11|I4|MN1n I11|I4|MN4n I2|I4|MN1n I11|I4|MN0n I2|I4|MN0n I1|I0|MN0n I1|I4|MN4n I2|I1|MN1n I1|I0|MN1n I2|I1|MN0n I1|I4|MN0n I1|I4|MN5n I2|I3|MN2n I11|I3|MN3n I11|I1|MN1n I2|I3|MN3n I11|I1|MN0n I11|I3|MN4n I2|I3|MN4n I11|I0|MN1n I1|I2|MN1n I1|I3|MN2n I2|I3|MN5n I1|I3|MN3n I1|I1|MN1n I2|I2|MN0n I1|I1|MN0n I1|I3|MN4n I2|I2|MN1n I11|I3|MN5n I11|I3|MN1n I2|I3|MN1n I11|I3|MN0n I2|I3|MN0n I11|I2|MN0n I11|I2|MN1n I11|I3|MN2n I10|I3|MN1n I10|I3|MN5n I3|I3|MN1n I3|I3|MN5n I1|I3|MN5n I1|I3|MN1n I1|I3|MN0n I1|I2|MN0n I0|I2|MN1n I3|I1|MN1n I0|I2|MN0n I0|I3|MN0n I3|I2|MN1n I0|I3|MN1n I0|I3|MN5n I3|I2|MN0n I3|I0|MN0n I0|I3|MN4n I0|I1|MN0n I3|I0|MN1n I0|I1|MN1n I0|I3|MN3n I3|I1|MN0n I0|I3|MN2n I0|I4|MN0n I21|MN2n I0|I4|MN4n I0|I4|MN1n I0|I0|MN0n I3|I4|MN4n I0|I4|MN5n I0|I0|MN1n I18|MN1n I0|I4|MN3n I21|MN0n I0|I4|MN2n I21|MN1n I18|MN2n I10|I3|MN3n I3|I3|MN3n I10|I3|MN2n I10|I2|MN1n I3|I3|MN2n I10|I2|MN0n I10|I3|MN0n I3|I3|MN0n I10|I4|MN5n I3|I4|MN5n I10|I0|MN1n I10|I3|MN4n I3|I3|MN4n I10|I1|MN0n I10|I1|MN1n I10|I4|MN0n I3|I4|MN0n I10|I4|MN4n I10|I4|MN1n I3|I4|MN1n I10|I0|MN0n I26|MN0n I26|MN1n I10|I4|MN3n I3|I4|MN3n I10|I4|MN2n I3|I4|MN2n I26|MN2n I4|I2|MN1n I4|I2|MN0n I5|I1|MN4n I12|MN2n I4|I3|MN5n I18|MN0n I5|I3|MN0n I5|I1|MN0n I4|I1|MN0n I5|I1|MN2n I4|I1|MN1n I12|MN1n I5|I1|MN3n I12|MN0n I4|I4|MN4n I5|I1|MN5n I5|I3|MN2n I4|I0|MN0n I5|I3|MN1n I5|I1|MN1n I4|I0|MN1n I20|MN1n I15|MN0n I19|MN1n I20|MN0n I15|MN1n I19|MN0n I20|MN2n I15|MN2n I19|MN2n I4|I3|MN2n I9|I3|MN2n I9|I2|MN1n I9|I2|MN0n I4|I3|MN0n I9|I3|MN0n I4|I3|MN1n I9|I3|MN1n I9|I3|MN5n I9|I0|MN1n I4|I3|MN4n I9|I3|MN4n I9|I1|MN0n I9|I1|MN1n I4|I3|MN3n I9|I3|MN3n I4|I4|MN0n I9|I4|MN0n I9|I4|MN4n I4|I4|MN1n I9|I4|MN1n I9|I0|MN0n I4|I4|MN5n I9|I4|MN5n I27|MN1n I27|MN0n I4|I4|MN3n I9|I4|MN3n I4|I4|MN2n I9|I4|MN2n I27|MN2n" "gpdk_nmos_spectre"
