HEADER
"PSFversion" "1.00"
"__NEXT_FILE__" "multiplier_low_4X4_multiplier_av_extracted"
